<?xml version="1.0"?>
<VTKFile type="UnstructuredGrid"  version="0.1"  >
<UnstructuredGrid>
<Piece  NumberOfPoints="3677" NumberOfCells="9935">
<Points>
<DataArray  type="Float64"  NumberOfComponents="3"  format="ascii">50.82663499123377 0.289191117965888 0.07979264007214715  50.61397235526006 0.2739265614501103 0.1223067621599265  50.63559042839769 0.2967568641806955 -0.04399034467480849  50.57174671832048 -0.001879787504296834 -0.00158960334658742  19.52186013827291 0.002707165452386522 0.2999667764138303  19.60781680929831 -0.003342557257726197 -0.003681747660372714  19.29669548269656 0.000787443151751166 -0.0008113975090003334  19.49698417437015 0.1514420348079442 0.2589439373370003  29.62115046167388 0.002018765343176467 -0.2999752247782727  29.71138608506865 -0.003018966589853801 -0.00836019991953918  29.89686067152085 -0.2122437992399302 -0.212017492126462  29.84763951568073 -0.009060861195223995 -0.2998470864205872  47.66526302663934 0.0676529603812788 0.2922540541807066  47.57279898617065 0.002661190871037389 -0.0003559654744434981  47.52762934791807 0.1026337960634039 0.2818808087793384  47.6569536553299 0.2143383932433018 0.209870847683819  38.51291593006915 -1.351438098132207e-05 -0.0005033512344631008  38.42252973008655 0.2977716384921918 -0.03647271891963917  38.6543510254716 0.2977587653422989 -0.03658880000455513  38.66050867544594 0.1828344541956036 -0.2378240173219773  12.09107069545005 -0.000424251613927451 -0.002660389912549355  12.19806080631956 0.297194727051318 0.04076640955610719  12.03556038575098 0.2974399354460335 0.03896096769710712  12.07264307413686 0.2362581345192769 0.1848765867714986  35.10327823906964 -0.2487831407839987 0.1676297711041564  35.17818342446968 -0.001362406620291662 -0.001312515368385253  34.99509278977393 -0.05572426056812846 0.2947574312682741  35.1280325433308 -0.1329169340856716 0.2689270632590965  10.39041538289678 -0.2994843365597455 0.0172318495389452  10.26287998310623 -0.2168510457444721 0.2072957560339582  10.53251520675303 -0.007491932424511571 0.001833625100668257  10.12655343833278 -0.004307420728998979 0.002002805623494891  5.322130337663194 -0.000436977803829286 -0.003460629210736976  5.00231949340025 0.0009437173012197542 0.003025467732002185  5.097858733315553 0.2940591291055189 0.05936060469086987  5.22469300059343 0.2871698414050812 -0.08678284348206194  12.04788848722031 -0.2995800496961687 -0.01567392605549811  11.94143965342986 -0.2633455615064411 0.1436552693969279  11.92583102390993 -0.2809098261176056 -0.1052459979352479  34.53954498539366 -0.2539965102067024 -0.1596222063101005  34.59956490497578 -0.1531008496822764 -0.2579771512223635  34.67698550993312 -0.2939324663338239 -0.05995891267400041  34.73038823674949 -0.2277437833178993 -0.1952612045747376  51.93606131171835 -0.179574143517619 0.2403046186895381  51.76890575861522 -0.2974358330668058 0.03899117305442323  51.65564215958354 -0.2367643179392564 0.1842272411456229  51.79604195369849 -0.06415010153219342 0.2930451848459532  30.61697950408405 -0.002665606750732241 -0.001472325723936629  30.92849277596614 -0.002876411635246656 -0.002382613180749921  30.67684466226309 -0.2934388755255433 0.06229045269196824  30.8640899578836 -0.2967915537208752 -0.04373492948813658  42.62390951831344 -0.07539695131325121 0.2903496881570962  42.70291402328428 0.06660731987366725 0.2925023775403165  42.81826675026969 -0.06294092752279021 0.2933011689474714  42.60728990317369 0.005830133480284758 0.0001690898382606942  42.42075960203231 -0.07639756929431318 -0.2900859556161378  42.40784000824397 0.05719269361050427 -0.2944840304756001  42.54134108746027 0.07134967714896585 -0.2913761414367033  13.80250237118328 0.280651138709051 0.1059419359364915  13.76211242620218 0.1689184245572737 0.2478990252018025  13.80621850358683 -0.003917266774700556 0.001455007420141707  13.94537639178193 0.1467270372034327 0.2616548787657502  10.96873510498014 -0.1390082879713779 -0.2658271525664928  11.03804261222302 -0.00163540427908726 0.0006305122171922917  10.78472963654329 0.03646495710201529 -0.02984334198799683  10.94702428949861 -0.2653540585036385 -0.1399201267036596  12.85018252112027 0.2991557544457532 -0.022433795858992  12.92545200091582 0.004217391071762722 -0.001877961396584485  12.71370087431428 0.2997377640069087 0.01202898338417976  12.78750279372 0.2635225482672058 -0.1433337056754738  11.00330180630505 0.01905015134980947 -0.2993726267285935  19.89804199639004 0.01607265074633635 -0.00415722683590368  19.92826126567839 -0.05869299639652457 -0.2942004628656439  19.71948417499583 -0.1250135625197438 -0.2726867557111541  19.78430908752571 0.02774450153802593 -0.2986984238164487  10.2147582724322 -0.2952107342160905 0.05328957477124899  10.01688419832438 -0.1930082012718637 0.2296395186136913  9.976965382691183 -0.2837278422255639 0.09739096884471868  10.80092855609356 -0.1924282341022942 -0.2301275180020415  4.544720784466367 0.0007380056678087249 -0.003329377136437828  4.769783924049182 -0.05084168490363404 0.2956551965950029  4.774470571906619 0.02898702572882074 -0.06950170344665524  4.704672176156519 0.08338366763500944 0.2881555841339382  55.59040773126469 -0.05811040490710284 0.2943131660311917  55.45604923448568 -0.05425749628278616 0.09229106885833127  55.6733227325311 0.004884119884316834 0.001878267818037765  55.70018630286859 -0.2357818977944817 0.1854716257326035  47.08382700577295 0.2535186807273959 0.1603976744942059  46.94082512317412 -0.005945045604303062 -0.0002875303171241406  46.99119644727047 0.1517196214221626 0.2587821550378492  46.91464622293803 0.253022061807764 0.1611664038142932  8.567978033728675 -0.2998457296569097 -0.009097697560620101  8.692722931414126 -0.003861297368445482 -0.00522763573001489  8.37439137874706 -0.0008670171558011752 -0.0005602326790602463  8.554706644853727 -0.2344070232936636 0.1871894770700206  48.39238214307825 0.276874452068076 0.1154801667308553  48.24281533702337 0.2999678804455379 -0.002617205371557532  48.20454783958703 -0.0007331678759919247 -0.0007481333382721896  48.25195527650759 0.2676451391854583 0.135504311185152  13.30736859619784 -0.2936855863022713 0.06112508243151116  13.16993573852774 -0.2067916419080811 0.2173396360194035  13.2507530675285 -0.001642928630351731 0.002589093486656174  13.20353850363091 -0.2772110220135683 -0.1146870969930751  32.30245077871112 0.09393415755759196 0.2849124254202214  32.2066609507729 0.2220268890211136 0.2017459015326837  32.40740990211354 0.2177050196193666 0.2063983132820886  32.38251568348274 0.001279037649040508 0.009666673338720518  42.59705644577758 -0.2165543640466303 0.2075998102405878  42.76083123115082 -0.197818757005195 0.2255118641188049  51.49044743617254 0.04977714832653793 -0.001437310936844932  51.6497482113101 0.237932560431953 0.1826917935226301  51.66763824776224 0.04497009952101566 0.2965999426828282  51.7624148292054 0.003586389671646567 -0.0222344194278235  18.70591690212073 0.01295985278829037 -0.06817330390443038  18.63649799541023 -0.2942936719788709 0.05821510727565864  18.59852229768001 -0.2388103086196931 0.1815381491578023  18.4601469665879 0.0009181930352105683 -0.005029698801023622  30.81119056245613 0.2993410922393852 -0.0195634384816669  30.63710843028473 0.2697233169825701 0.1312855013510246  30.80600347836565 0.2771494782633934 0.1148385791859531  1.583837822020478 0.2694661908572575 -0.131812323349342  1.703097521046506 0.1928103165677143 -0.2298060239258117  1.641907673292476 0.2985522762020963 0.02943347265548028  1.732811454214287 0.01568372400781562 -0.003007867205645692  47.40106156573758 -0.2710910304515622 0.1284832130110751  47.25630209522452 -0.001454252020045788 -0.001442555589222877  47.34763160775923 -0.2988642481132652 -0.0258188836624758  42.9658438160634 0.01119859837879757 0.2997683488977223  43.02813401022848 0.002931953368347229 -0.003039658820774737  43.09423025260813 0.01565166922486476 0.2995814170746639  43.07640222426507 -0.1099128378965728 0.2791202873680921  30.56134436377964 -0.08871978376778342 -0.2865643313558131  30.80848409287718 -0.03914263748270598 -0.2974152617317996  30.83925413375268 -0.2101488544415256 -0.2140671274127705  56.78518812925623 0.1187512043018838 -0.27547227238886  56.76971123105008 -0.06878587590817739 -0.291985004361246  56.67777770136345 0.0002268160099596628 -0.003067079487559737  56.61715220818557 0.03542163860771971 -0.2978882011037033  8.517265639538383 -0.122070338550441 0.2740348514267987  52.41080327376461 0.1662471831387909 -0.2497166522821969  52.65800916692464 0.07340693043212693 -0.2908741972839279  52.51401053913294 -0.101457462973088 -0.2823180640494731  52.39548005894909 0.01375311726785845 -0.2996742603956457  55.56557986875221 0.2437653066986305 0.1748317474192925  55.42284678276026 0.178762942245371 0.2409218196817298  55.48874883732795 0.2999797504041953 -0.001650002679040197  22.39245050381897 0.2928563616495239 -0.06504203232063083  22.3563025599969 0.1461073597042958 -0.2619959455776252  22.21924648124055 0.2993480099348797 0.01945083909703749  22.09647788709476 0.2836636866356959 -0.09757745539987855  30.5598883779004 -0.2760014901233161 -0.1175166327856077  46.64554952617349 -0.002178149157752274 -0.01035244425613843  46.8345851003631 0.1219054091869042 0.2741103946306755  46.74161691208191 -0.04300572938986467 0.296890590964657  30.78389208465774 0.1586016569410015 -0.2546253542826288  15.44995966948083 -0.2868385820548146 -0.08785408940474526  15.53946120678162 -0.008002098985041416 0.001396409638437512  15.61807935538095 -0.2872196319638368 -0.08661114871853123  15.47123331449193 -0.2200581469060656 -0.2038652156757476  18.28368450659038 0.09549569132252375 0.2843798605294891  18.34402596637766 -0.06663380008808258 0.2924960889011916  18.24372566487965 -0.1845698727796757 0.23650361166693  18.09333918075968 0.001156510122721804 0.000215582004726933  10.80250516223926 0.006343122253968693 0.2999221542707691  10.61177917072825 -0.1634187684539201 0.2515567378762608  47.32702205387368 0.040952526
[...]
<PointData  Vectors="f_14"> 
<DataArray  type="Float64"  Name="f_14"  NumberOfComponents="3" format="ascii">-3.1208758440699730e-02 2.2587286152093652e-02 -3.2963139214166888e+00  -4.6466143598146672e-02 2.3065570950133688e-02 -3.3774111838038712e+00  1.5931433153428758e-02 2.2137142586744561e-02 -3.3694613816708414e+00  -9.6473172341082265e-05 2.2392439172826885e-02 -3.3929708001863785e+00  -1.0580080803307987e-01 1.1238812530506626e-02 -3.4842631376707764e+00  1.9243738512371490e-03 1.0647777229306293e-02 -3.4537585529426251e+00  7.3426669002232641e-04 1.0565024618976092e-02 -3.5633641241974989e+00  -9.1255691209876325e-02 1.1535348960317384e-02 -3.4935599477713013e+00  0.0000000000000000e+00 0.0000000000000000e+00 1.4999999999999999e-01  2.3233317254283041e-04 9.8063886050179739e-06 1.4998743766278791e-01  0.0000000000000000e+00 0.0000000000000000e+00 1.4999999999999999e-01  0.0000000000000000e+00 0.0000000000000000e+00 1.4999999999999999e-01  -5.4187964996418585e-02 2.4484032159249235e-02 -4.2180188912285272e+00  -6.6876184551865534e-04 2.4556539914656287e-02 -4.2361261808252237e+00  -4.9123771643273570e-02 2.4821178042824389e-02 -4.2421162687834570e+00  -3.8609524733630406e-02 2.4624885063037869e-02 -4.2203754176146857e+00  -1.1475971364360851e-03 7.2560824085260139e-03 -2.7251154073059562e+00  -1.7845819987673206e-02 6.9796572553035372e-03 -2.6848335765258629e+00  -1.7630607716732891e-02 7.5885130793916797e-03 -2.7866863691895909e+00  -1.0460397346144520e-01 7.6460455422610518e-03 -2.7893459734005321e+00  -5.3589097392974407e-05 5.9576022821539619e-03 -4.0931476780763338e+00  9.1976088349936223e-03 6.1543237315826154e-03 -4.1157585714094127e+00  8.1014985766477161e-03 6.1755758366361232e-03 -4.0816538842689027e+00  3.9795249824090655e-02 7.1593539410832888e-03 -4.0892121748197559e+00  7.3728356211754734e-02 -2.3125652038320990e-05 -1.1492240731508743e+00  -1.4286421071416874e-03 -9.6566191456755015e-05 -1.1823123587088742e+00  1.2914269868781530e-01 -5.6870253696271900e-04 -1.1012605783907907e+00  1.1888461920735267e-01 -2.1555165924267618e-04 -1.1604176397734378e+00  5.4155880145306794e-03 6.4431835661165685e-03 -3.6361915561717919e+00  6.6925407158791458e-02 6.8156120914012793e-03 -3.5949997295468501e+00  1.0536535576057043e-03 6.2898839646635561e-03 -3.6815310323120811e+00  1.0511827067315996e-03 6.9727589869455521e-03 -3.5511039066046224e+00  -1.3053322166532578e-03 6.4240424381331396e-03 -1.5255136397255336e+00  1.5185303248257264e-03 6.1379834670015412e-03 -1.3832397299725017e+00  2.5932309445260215e-02 6.2569184169267425e-03 -1.4259088020994619e+00  -3.8714216768845615e-02 6.2602866063388952e-03 -1.4823265617776924e+00  -3.0845597801181786e-03 5.9770757189500099e-03 -4.0836506526833691e+00  3.1866287017871954e-02 5.7892443186706062e-03 -4.0604457314784064e+00  -2.3366160794856195e-02 6.0748468473931228e-03 -4.0567772940043989e+00  -6.7672034012331503e-02 -1.7601254429358590e-03 -9.0346580007161204e-01  -1.1025239459157832e-01 -1.4149140874804283e-03 -9.2917914964592496e-01  -2.5916567277555876e-02 -1.1905324422004037e-03 -9.6228810969304235e-01  -8.4077330752884677e-02 -1.0577847242311774e-03 -9.8531935350302158e-01  -1.0448562377659056e-01 2.1558092632844968e-02 -2.8382832338891246e+00  -1.7324086615376336e-02 2.1515402029534211e-02 -2.9104700508357424e+00  -7.8224922391792712e-02 2.1514335071679980e-02 -2.9583054204427839e+00  -1.2572064890187068e-01 2.1665226627974314e-02 -2.8979764372559900e+00  -7.2911423544103255e-04 -5.2154494262298377e-04 1.4728144745396635e-01  -1.0287534894791806e-03 -1.1491095939856195e-03 1.2756402824228122e-01  2.2464817518918711e-03 -2.9393504077883381e-04 1.4509284102869585e-01  -5.4752068012224545e-03 -1.2326093104118670e-03 1.3376842641527911e-01  6.1527726423149229e-02 1.9685686290207061e-02 -4.1345705449230747e+00  5.9775059938657428e-02 2.0654134768116637e-02 -4.1507578294082439e+00  5.7667614145056792e-02 2.0322517793510256e-02 -4.1755476828811346e+00  -1.0044260952410972e-03 2.0529533585347846e-02 -4.1325491487402264e+00  -6.6921735191695544e-02 2.0713862505779952e-02 -4.0904506894311092e+00  -6.8492281227766919e-02 2.0463426836007926e-02 -4.0871839905771630e+00  -6.5111796439528011e-02 2.0231551844655769e-02 -4.1160769213277391e+00  8.8455863184796705e-03 5.3141113932018893e-03 -4.3446867742228665e+00  2.0468499771273935e-02 5.3697664943911441e-03 -4.3406446432437669e+00  6.9325279143382906e-04 4.1653843038870157e-03 -4.3442865343967654e+00  1.7504947467197204e-02 5.2717862938937501e-03 -4.3540007319083252e+00  -7.5417535674196803e-02 5.6955926872540325e-03 -3.8105142889616226e+00  2.0832262942162776e-04 6.2511931850312390e-03 -3.8311519665431488e+00  -8.2343442985369844e-03 6.0702528125397811e-03 -3.7579196751072481e+00  -3.9574923067731776e-02 6.0055026756573463e-03 -3.8043955118496626e+00  -2.4476871497111563e-03 4.3677988986647260e-03 -4.2335368032652170e+00  -1.9367171749881876e-04 4.4479003876332522e-03 -4.2443101989948522e+00  3.4013873241410851e-03 4.9453747863836550e-03 -4.2119368342256607e+00  -2.1527485699828423e-02 3.9356046467006354e-03 -4.2237066263922971e+00  -8.4826859700298296e-02 5.3463157964642981e-03 -3.8204826601556294e+00  2.0417820540154625e-03 1.0738828925185786e-02 -3.3472964207332043e+00  1.1113427694765003e-01 1.0526248355478768e-02 -3.3345099659529240e+00  1.0009113365159583e-01 1.0514419263059387e-02 -3.4125554109371690e+00  1.1030118641011437e-01 1.0105873171587999e-02 -3.3891350795617194e+00  1.7340978672119523e-02 6.6363202497367237e-03 -3.5795073919216343e+00  7.7841332737640309e-02 7.0907915734053631e-03 -3.5134868583802210e+00  3.2895391594216408e-02 7.1029952038642839e-03 -3.4998961593569105e+00  -6.7465449617774148e-02 6.4674360436441100e-03 -3.7615646163191299e+00  -1.4103497569558287e-03 5.7072329125621374e-03 -1.1844761092490641e+00  1.2780626582792856e-01 6.4637307281902321e-03 -1.2815954282851532e+00  -2.9896600549430424e-02 5.8558023546727411e-03 -1.2836833449789569e+00  1.2402838213319786e-01 6.2488804111800796e-03 -1.2535605218229753e+00  -1.2730646549740465e-01 1.4997586582034999e-02 -1.1744506913406132e+00  -4.0834643536554992e-02 1.4897351966715022e-02 -1.2326579039210377e+00  -1.3498571385024804e-03 1.4174311395416656e-02 -1.1381282225144151e+00  -8.0329498927749987e-02 1.4821590166886167e-02 -1.1264970552219737e+00  -2.2793220869839897e-02 2.4622675172253829e-02 -4.3117680710200021e+00  -8.0327831156073439e-04 2.4277036079218679e-02 -4.3313374993059748e+00  -3.4411895796190937e-02 2.5170945617480258e-02 -4.3233727376089579e+00  -2.0832246648824299e-02 2.5210099330841767e-02 -4.3340055409755509e+00  -3.4626434953648460e-03 8.0419956461545913e-03 -2.9680050925679859e+00  -1.8018239513629642e-03 7.9943740342848339e-03 -3.0192196344637070e+00  -5.5700119488860475e-05 8.0715729892141472e-03 -2.8883736582652708e+00  7.6850343126244239e-02 8.1001027969733672e-03 -2.9624441871890661e+00  -2.7976734214018719e-02 2.4163113355877820e-02 -4.0673610488639502e+00  1.8508070793962011e-05 2.4044363742402108e-02 -4.1026802551569537e+00  -5.9919673862276590e-04 2.4103048830580509e-02 -4.1114311149707605e+00  -3.1184502127424022e-02 2.4737786522888581e-02 -4.1000781987096548e+00  7.8456936265190614e-03 4.1302644844526818e-03 -4.2952488721202942e+00  2.9006642020959691e-02 3.7377031441214528e-03 -4.2774971663455821e+00  6.4360719574422501e-04 4.2900774310925885e-03 -4.2885052763945142e+00  -1.4306381057034429e-02 4.8110749118083227e-03 -4.2820515504265177e+00  7.1053169192585586e-02 -3.0800350433431356e-03 -1.1619489946740073e-01  4.8579701712002689e-02 -3.2995739412281203e-03 -9.1592239197183609e-02  5.3675381376743027e-02 -4.5175438989561089e-03 -1.4376608573752980e-01  1.3706592132296791e-03 -2.8135406270997179e-03 -1.3642716272679534e-01  4.4139285608162125e-02 1.9111703763509444e-02 -4.1293542117953796e+00  4.5039095632941235e-02 2.0087460683771388e-02 -4.1645961285337831e+00  1.5245604912470707e-04 2.1688434512017480e-02 -3.0279967844802833e+00  -7.7371642243005134e-02 2.2125072035586932e-02 -2.9612434492046087e+00  -1.2567661469586411e-01 2.1981331479489174e-02 -2.9532858726463838e+00  8.9325108982185354e-03 2.1618534804140492e-02 -2.9133792314647611e+00  2.1069835081247937e-02 9.7958119608787999e-03 -3.7540519552001888e+00  -1.6436633165308169e-02 9.8107194536958819e-03 -3.7743615966076893e+00  -5.3198867493468964e-02 9.6410243602049178e-03 -3.7854781743766739e+00  2.0067316484400099e-03 9.5410560975675157e-03 -3.8271160681357563e+00  -1.0300421320639898e-03 -7.9619049642974020e-04 1.3685639206735439e-01  5.1512897773601926e-03 -2.3816457677622461e-03 1.4593190740553189e-01  6.8226127476698753e-03 -1.6256433275504366e-03 1.3699251184287975e-01  -2.8743850588104112e-02 2.6431667097017992e-03 -1.8136766316299210e-01  -5.1928021706261880e-02 3.6314997540331686e-03 -2.0866403261176344e-01  6.1237569539998437e-03 2.4996525507391715e-03 -1.9404619365404421e-01  -8.5844569170941213e-05 2.9636726734218960e-03 -2.1411183551495147e-01  -2.1657402012133370e-02 2.4001533400629535e-02 -4.2650272670578051e+00  -5.3750111238448563e-04 2.4544868423483950e-02 -4.2873592597346528e+00  3.9608893760845667e-03 2.4969056743291026e-02 -4.2740691840333627e+00  5.5764780686957623e-02 2.0762534803606868e-02 -4.2031519160725859e+00  -9.2382126532662766e-04 2.1294927967140123e-02 -4.2166454658747439e+00  5.2827434115263416e-02 2.1129101500904263e-02 -4.2267287214369302e+00  4.9579272454271205e-02 2.0715765941482858e-02 -4.2242828541187158e+00  -9.2253997121448470e-03 -1.9251037907779304e-03 1.4664721056733465e-01  -2.1045140276084656e-02 -1.0056035584468063e-03 1.3504935336510265e-01  -1.5815601038122778e-02 -2.0207272238956697e-03 1.3403857211646433e-01  1.0163273837335612e-01 1.1132599611349313e-02 -6.9057080566392981e-01  1.0765171708231987e-01 1.0587888812895808e-02 -6.9602222777244194e-01  5.9410176446754350e-04 1.1238764791529287e-02 -7.3010301747811257e-01  1.1304738902832148e-01 1.1293961592370672e-02 -7.5466625503780771e-01  1.1252541294562318e-01 8.3275610030052079e-03 -2.9470435746122674e+00  1.1115450412119567e-01 2.0352996270968895e-02 -2.6290701666056333e+00  1.3109992092902370e-01 2.0194041324037099e-02 -2.5177402252065249e+00  1.2616180637485450e-01 2.0640763284493824e-02 -2.5824540242551128e+00  1.3318582638789586e-01 2.0598709373631896e-02 -2.6357108740791828e+00  -7.5383622362573011e-02 1.4485540979688388e-02 -1.1850811707181625e+00  -1.0551661989897219e-01 1.4867911337449651e-02 -1.2476845906726295e+00  1.3466381252017722e-03 1.4654638186098370e-02 -1.2185133482588757e+00  3.1218626333750641e-02 9.2874003544155519e-03 -2.2823073777240275e+00  1.2168418252302893e-01 8.8353964989278163e-03 -2.2985610234429825e+00  -7.9941302029974595e-03 9.6654491175589656e-03 -2.3623476733257136e+00  4.5378595980923780e-02 9.4670052139852919e-03 -2.4187361317211735e+00  -4.3149516873623841e-03 -1.4213029352168828e-03 1.4857456296921312e-01  1.4514602865642310e-04 2.4403783982018271e-02 -4.3651504232430298e+00  -3.2767642774668981e-02 2.4599529420309768e-02 -4.3435029927425477e+00  -3.3704361457514667e-02 2.3970854713616367e-02 -4.3541741551491446e+00  -1.6412119425847031e-02 1.0144115116198913e-04 1.3743218716354416e-01  6.1354032569050287e-03 5.5491600868242926e-03 -4.3596270379940858e+00  2.4791955664105436e-04 5.4578961844574088e-03 -4.3548316108627114e+00  7.0717452962720632e-03 6.1214774930962992e-03 -4.3486706992956741e+00  1.2804384190537345e-02 5.9919002312670824e-03 -4.3577545301047547e+00  -7.8054913108383278e-02 1.0022947428758231e-02 -3.8759439971486582e+00  -8.0783330902053391e-02 9.7050760102560061e-03 -3.8592998985343980e+00  -6.4031181760952585e-02 9.3066039899976933e-03 -3.8868220760464256e+00  3.9460721164998188e-04 8.9420683068544456e-03 -3.9282622286904889e+00  8.8335168296508143e-02 6.1460389998087830e-03 -3.7627929278036696e+00  7.5951557301243283e-02 6.1980075586691927e-03 -3.7046939107655894e+00  4.5404401891322846e-02 2.4607334726363256e-02 -4.2749121023455450e+00  4.2089482320025351e-02 2.5199803272907634e-02 -4.2797245369626671e+00  4.2672064979276961e-02 2.4773966629906195e-02 -4.2977488391104055e+00  7.0231670290819628e-02 7.0398590761613861e-03 -3.7189125350981826e+00  6.7672218470411676e-03 5.9481162947733054e-03 -4.0418099887489127e+00  -1.2467224014741475e-01 7.6794005920626891e-03 -2.8506771920149725e+00  -9.4670197978741155e-02 7.6109513810720831e-03 -2.8057752383946490e+00  -1.3712579683800952e-03 8.1568905691548187e-03 -2.7485512964387455e+00  2.5780807863954792e-02 7.3098958820519092e-03 -4.1815328254129955e+00  5.3608493655877623e-03 6.8990483082099086e-03 -4.2075930917544229e+00  8.3660897747470033e-04 7.1053857053624573e-03 -4.2036596931314438e+00  4.2538468192705708e-02 7.3681955269121295e-03 -4.1906800906006332e+00  6.3783441859138423e-02 1.5075875342883526e-02 -1.2785195263478384e+00  -4.2071698444793226e-03 1.5417242517651673e-02 -1.3299100928289662e+00  4.6651592444162861e-03 1.5036488046596169e-02 -1.2801679569750490e+00  5.6672850028578635e-03 5.9774046061084824e-03 -3.7984019675725529e+00  -2.4296476107467817e-02 6.3571664800173636e-03 -3.7544566283602863e+00  -4.3393434722281552e-04 7.3792652727829294e-03 -1.8254333602630921e+00  4.3123139841817947e-02 7.1056547163131844e-03 -1.8038909870336206e+00  9.0442075631850458e-02 7.2349191327963679e-03 -1.8753488424262761e+00  2.8790231519708475e-03 7.6771031890855530e-03 -1.8893459272701876e+00  -3.5955731784193819e-02 7.7951581055172902e-03 -4.2536578801370091e+00  5.6466029434042587e-04 6.3297855210273672e-03 -4.2589901700909403e+00  -2.8974593691641248e-02 7.1748639543073155e-03 -4.2764354863547611e+00  -1.5247988721236895e-02 6.8601872902649763e-03 -4.2646196767103559e+00  -5.2556114770893276e-03 1.3912762872020337e-03 1.4671880071337809e-01  -7.3098416332989247e-03 -1.8992263572674083e-05 1.4109845032662441e-01  6.4846482503629524e-02 1.0019478119496904e-02 -2.6730748495462335e+00  8.1423175099942110e-05 1.0608757164064729e-02 -2.7566607108035579e+00  1.7073788210150650e-02 1.0396741795522283e-02 -2.7266328817754415e+00  1.0685922797467280e-01 9.6604900397282874e-03 -2.7393693586249626e+00  -1.3632744527219524e-03 2.3262607122883792e-05 1.4732662981212938e-01  0.0000000000000000e+00 0.0000000000000000e+00 1.4999999999999999e-01  0.0000000000000000e+00 0.0000000000000000e+00 1.4999999999999999e-01  4.7715762837943640e-02 6.1865512010404683e-03 -3.7166139699935314e+00  -4.1811166473520581e-02 4.8934814491413533e-03 -4.1189392121028030e+00  -1.4331324724588410e-02 8.6536601236397413e-03 -2.0806122083950909e+00  8.1622169326983129e-02 8.4474615862911145e-03 -2.1358545026320597e+00  1.1713191500403236e-01 7.7463878892220905e-03 -2.0113573717205253e+00  1.2551064142130547e-01 8.0843547683419163e-03 -2.0921147841957497e+00  -4.0325070890378074e-02 7.7116558555896750e-03 -2.8567412841773456e+00  -2.7486434067406387e-02 7.9379410628110641e-03 -2.7724549527238396e+00  3.8001699070858115e-04 8.0924022022208081e-03 -2.8241340400954482e+00  -7.9237190648754938e-02 7.4038697644413110e-03 -2.9046768507894303e+00  -2.0256584831062494e-02 7.7972888251749964e-03 -2.9211629399625423e+00  4.7667230784759094e-03 2.5502520908125638e-02 -4.4302664199593185e+00  2.0109478950202787e-03 2.6057448729273718e-02 -4.4318035464235281e+00  4.5794123002987856e-03 2.5547346413689772e-02 -4.4288635567251351e+00  -1.7201192773723520e-04 2.5002012835867189e-02 -4.4319888888978589e+00  -5.5873257484577755e-02 5.5635902422234967e-03 -3.8069040120928062e+00  -3.2151762217458670e-02 5.4266025489857440e-03 -3.7689498039421481e+00  -7.9943768376308996e-02 5.4618938567802177e-03 -3.7859854070899135e+00  -2.0466534122458421e-04 -5.3256726004215363e-06 1.5012297992460613e-01  0.0000000000000000e+00 0.0000000000000000e+00 1.4999999999999999e-01  0.0000000000000000e+00 0.0000000000000000e+00 1.4999999999999999e-01  0.0000000000000000e+00 0.0000000000000000e+00 1.4999999999999999e-01  2.1513859246103970e-02 8.2527436609977859e-03 -2.9727995534948297e+00  -4.6087775341985557e-03 7.9666148461794185e-03 -2.9044992182894860e+00  -7.9351034879897336e-02 8.1054841433611958e-03 -2.9242706529828970e+00  -2.4105333483065527e-03 7.9145477634946729e-03 -2.8695821501829442e+00  4.4614808595134876e-03 4.1130482658180301e-03 -4.3382992501867195e+00  4.6966059356561216e-03 4.4437633334408538e-03 -4.3194343691842425e+00  -9.7018108619185729e-03 4.5736073996811271e-03 -4.3249054568266860e+00  7.9647839977759968e-03 3.9674868869097575e-03 -4.3173448267313264e+00  -3.0871413230836946e-03 -2.9523997986726086e-03 -2.1883829662571530e-01  5.7293244396710512e-02 -3.6615735114515252e-03 -1.9915098157066694e-01  1.1202907050791411e-02 -3.0337708356106890e-03 -1.6524487501816648e-01  1.1727904198427766e-01 3.4668940369670920e-03 -2.1162459903824211e+00  -1.3362474492057831e-03 3.7568271107986349e-03 -2.0899155245483407e+00  1.3799915887075437e-01 3.2794026354673366e-03 -2.0709560144117574e+00  1.3852757090137127e-01 3.6666123615510336e-03 -2.1482371144039178e+00  -9.4090313199372496e-04 -7.7152923854770011e-04 -1.0206249181367173e+00  6.1201925406187390e-03 -1.3929389878858359e-03 -9.0151653529102271e-01  7.1048805832549564e-02 -1.7027703447901452e-03 -9.3278999149797370e-01  1.8777789991586066e-03 -1.2001659411389324e-03 -9.4618152143170975e-01  -2.5393055329490960e-02 -2.4834094028224154e-03 1.1691864447990423e-01  8.0596517854179556e-03 -1.5164714046782797e-03 1.1222863404149463e-01  -6.0625684762226281e-03 -2.3280242720090517e-03 1.0148955100624132e-01  1.0137015894462921e-02 1.9915417242811749e-03 1.4171549654498294e-01  1.0190365680151860e-02 4.1995558079001820e-04 1.4214975660990728e-01  1.7233240241105698e-02 -4.3507115235738293e-04 1.3709581240537391e-01  -1.1232078321238989e-01 8.1006280968331321e-03 -2.9061362514635531e+00  -1.0526429611645971e-01 7.8889640237723782e-03 -2.8133392895055707e+00  -8.4007581360928590e-02 7.9700829883408500e-03 -2.9839385815370223e+00  -5.3728376850577693e-02 8.2985535238847847e-03 -2.9026903348272923e+00  6.4948346816482427e-02 6.8243695810340883e-03 -3.8034980845211388e+00  2.9520337401335084e-02 6.2928978405290097e-03 -3.8013172057179214e+00  8.4744104345812921e-02 6.4955755089242014e-03 -3.8035798294376129e+00  7.9166107632771140e-02 6.7098279276922544e-03 -3.7717168649537953e+00  -4.2628530923695548e-02 2.2087783793375542e-02 -2.8969928342169000e+00  4.6098042987696456e-03 2.1591920902761425e-02 -2.9564526517978638e+00  -5.5509494138476334e-02 1.5015065725157466e-02 -1.2854003194054218e+00  1.0222927135469742e-01 1.0688031033718254e-02 -7.7440645624273485e-01  6.8721645998670741e-02 8.5656831134387698e-03 -2.9713010189264515e+00  1.2321423692465804e-01 8.6281946385941728e-03 -2.9393675532291783e+00  1.0360166854296550e-01 8.9262062079284044e-03 -2.8920341723620160e+00  -1.2039792030526403e-02 6.2210389016976201e-03 -4.1110318374694437e+00  -3.7148652590103956e-02 6.4312854082317567e-03 -4.1034152099641386e+00  5.1067179002735469e-02 8.5949169810719123e-03 -2.9171170755757339e+00  2.4752084945721092e-02 2.2718349910660185e-02 -4.3847345962002366e+00  2.4740306950210532e-02 2.3455883602839147e-02 -4.3874546396940381e+00  1.7326403008049683e-02 2.3412323655822215e-02 -4.4080129613647312e+00  1.6671954158682913e-02 2.2492312334981539e-02 -4.3966276548289063e+00  6.9188647777782344e-02 -8.0159058265247109e-05 -9.0488599896635463e-02  2.8228312198286308e-04 -3.9621991669186191e-04 -1.3863855343448409e-01  6.6643883358673731e-02 2.4337084557851199e-04 -1.5104257135724466e-01  7.9398188964903971e-02 -6.0255688069689667e-04 -1.2984051794758142e-01  -1.2358431793388042e-01 -6.9624332135794463e-05 -1.1236130694387469e+00  -1.8062559623482608e-02 -3.6980433510983176e-04 -1.1638004464796847e+00  -8.7681066674559077e-02 -7.9816178860713169e-05 -1.2238219201159659e+00  -3.5160878766035214e-02 -2.2129472253805869e-03 9.7805467495843512e-02  -3.1505466980435250e-02 -1.6719185489040805e-03 1.1469469569493192e-01  -2.9260851292179747e-02 -1.4081653976078243e-03 1.0145740170775482e-01  -1.14791239020