<?xml version="1.0"?>
<VTKFile type="UnstructuredGrid"  version="0.1"  >
<UnstructuredGrid>
<Piece  NumberOfPoints="2029" NumberOfCells="4353">
<Points>
<DataArray  type="Float64"  NumberOfComponents="3"  format="ascii">38.46846846846846 0.4828394391688997 0.2029280440027298  38.64864864864865 0.3 0  38.46846846846847 0.2343211216622006 0  38.55855855855855 0.6 0  14.68468468468468 0.3 0  14.86486486486486 0.4828394391688986 0.2029280440027317  14.68468468468468 0.15 0.2598076211353316  14.86486486486486 0.1171605608311014 0.2029280440027317  2.882882882882882 0 0  2.972972972972972 0.2343211216622027 0  2.972972972972973 0.1171605608311014 0.2029280440027317  3.063063063063062 0 0  2.432432432432432 0.1171605608311013 0.2029280440027315  2.432432432432432 0.45 0.2598076211353316  2.342342342342342 0.3 0.5196152422706631  2.522522522522522 0.3 0.5196152422706631  51.80180180180179 0.15 0.2598076211353316  51.62162162162161 0.45 0.2598076211353316  51.7117117117117 0.3 0.5196152422706631  51.80180180180179 0.4828394391688997 0.2029280440027298  58.10810810810809 0.3 0  57.92792792792792 0.1171605608311024 0.2029280440027336  58.018018018018 0 0  58.1081081081081 0.15 0.2598076211353316  16.66666666666666 0.3656788783377972 0  16.66666666666666 0.45 0.2598076211353316  16.66666666666666 0.15 0.2598076211353316  16.75711893916628 0.45 0.2598076211353316  13.96396396396396 0.1828394391688987 0.3166871982679315  13.78378378378378 0.45 0.2598076211353316  13.87387387387387 0.3 0.5196152422706631  13.96396396396396 0.4171605608311014 0.3166871982679314  25.49549549549549 0.3656788783377972 0  25.4054054054054 0.6 0  25.49549549549549 0.45 0.2598076211353316  25.58558558558558 0.6 0  49.09909909909909 0.4828394391688997 0.2029280440027298  49.09909909909909 0.15 0.2598076211353316  49.27927927927927 0.45 0.2598076211353316  49.18918918918918 0.3 0.5196152422706631  25.13513513513513 0.45 0.2598076211353316  25.22558740763474 0.45 0.2598076211353316  25.22522522522522 0.3 0.5196152422706631  25.13513513513513 0.1828394391688986 0.3166871982679315  25.67567567567567 0.1828394391688987 0.3166871982679315  25.58558558558558 0.3 0.5196152422706631  25.67567567567567 0.4828394391688986 0.2029280440027317  41.08108108108107 0.3 0.5196152422706631  41.17117117117117 0.1828394391688976 0.3166871982679296  41.17117117117116 0.45 0.2598076211353315  41.26126126126125 0.3 0.5196152422706631  45.13513513513513 0.45 0.2598076211353315  45.13513513513513 0.15 0.2598076211353316  44.95495495495494 0.4171605608311003 0.3166871982679333  44.95495495495494 0.2999999999999999 0  57.20720720720719 0.15 0.2598076211353316  57.38738738738738 0.4171605608311003 0.3166871982679333  57.38738738738737 0.3 0  57.2072072072072 0.45 0.2598076211353316  3.153153153153152 0.3656788783377972 0  2.972972972972972 0.4171605608311014 0.3166871982679314  3.063063063063062 0.6 0  37.74774774774774 0.3 0  37.56756756756756 0.4828394391688975 0.2029280440027336  37.74774774774775 0.45 0.2598076211353316  37.65765765765765 0.6 0  6.936936936936935 0.3 0  6.756756756756755 0.3656788783377972 0  6.756756756756756 0.45 0.2598076211353316  6.846846846846845 0.6 0  30.18018018018017 0.15 0.2598076211353316  30.36036036036035 0.3656788783377989 0  30.18018018018017 0.45 0.2598076211353316  30.36036036036035 0.4828394391688994 0.2029280440027303  34.32432432432432 0.4828394391688997 0.2029280440027298  34.23423423423423 0.6 0  34.32432432432432 0.3656788783377994 0  34.14414414414414 0.3 0  11.53153153153153 0 0  11.44144144144144 0.3 0  11.44144144144144 0.15 0.2598076211353315  11.62162162162162 0.1171605608311015 0.2029280440027316  4.054054054054054 0.1828394391688986 0.3166871982679315  4.054054054054054 0.2343211216622028 0  4.054054054054054 0.4828394391688986 0.2029280440027318  4.234234234234234 0.45 0.2598076211353316  36.03603603603603 0 0  35.94594594594594 0.3 0  35.94594594594594 0.15 0.2598076211353316  36.12612612612612 0.2343211216622048 0  42.61261261261261 0.45 0.2598076211353315  42.79279279279279 0.3 0  42.61261261261261 0.2343211216622048 0  42.70270270270269 0.6 0  26.39639639639639 0.2343211216622027 0  26.57657657657657 0.3 0  26.57657657657657 0.1171605608311013 0.2029280440027317  26.48648648648648 0 0  30.54054054054053 0.2343211216622012 0  30.45045045045044 0.6 0  26.39639639639639 0.15 0.2598076211353315  26.21621621621621 0.1171605608311014 0.2029280440027317  26.3063063063063 0.3 0.5196152422706631  26.21621621621621 0.45 0.2598076211353316  10.63063063063063 0 0  10.54054054054054 0.2343211216622027 0  10.54054054054054 0.1171605608311013 0.2029280440027316  10.72072072072072 0.3 0  5.405405405405404 0 0  5.315315315315315 0.1171605608311014 0.2029280440027317  5.495495495495494 0.15 0.2598076211353316  5.495495495495494 0.2343211216622027 0  13.42342342342342 0.1828394391688986 0.3166871982679315  13.42342342342342 0.45 0.2598076211353316  13.33333333333333 0.3 0.5196152422706631  13.51351351351351 0.3 0.5196152422706631  11.26126126126126 0.2343211216622027 0  11.17117117117117 0.6 0  11.26126126126126 0.4828394391688992 0.2029280440027307  11.35135135135135 0.6 0  50.54054054054053 0.15 0.2598076211353316  50.36036036036035 0.45 0.2598076211353316  50.36036036036035 0.1828394391689017 0.3166871982679282  50.45045045045044 0.3 0.5196152422706631  41.35135135135135 0.15 0.2598076211353316  41.35135135135134 0.4171605608311024 0.3166871982679296  41.44144144144143 0.3 0.5196152422706631  41.80180180180179 0 0  41.62162162162161 0 0  41.71171171171171 0.15 0.2598076211353316  41.71171171171171 0.2343211216622048 0  7.027027027027025 0 0  7.117117117117115 0.15 0.2598076211353316  7.117117117117115 0.3656788783377972 0  10.36036036036036 0.15 0.2598076211353316  10.54054054054054 0.45 0.2598076211353316  10.45045045045045 0.3 0.5196152422706631  20.99099099099099 0.3 0  21.08108108108108 0.6 0  20.99099099099099 0.45 0.2598076211353316  21.17117117117117 0.3656788783377973 0  10.72072072072072 0.15 0.2598076211353316  10.72072072072072 0.4171605608311013 0.3166871982679315  21.53153153153153 0.2343211216622027 0  21.53153153153153 0.4171605608311013 0.3166871982679315  21.53153153153153 0.1171605608311013 0.2029280440027317  21.71171171171171 0.15 0.2598076211353316  23.69369369369369 0.3 0  23.6036036036036 0.6 0  23.69369369369369 0.45 0.2598076211353316  23.78378378378378 0.6 0  8.018018018018017 0.2343211216622029 0  8.018018018018017 0.4171605608311011 0.3166871982679318  8.018018018018017 0.1171605608311012 0.2029280440027313  8.198198198198197 0.15 0.2598076211353316  56.48648648648648 0.15 0.2598076211353316  56.48648648648647 0.45 0.2598076211353316  56.57657657657656 0.3 0.5196152422706631  56.66666666666666 0.1171605608310884 0.202928044002725  13.06306306306306 0.3656788783377972 0  12.97297297297297 0.6 0  13.06306306306306 0.45 0.2598076211353316  13.15315315315315 0.6 0  60 0.3 0.5196152422706631  59.85560050219348 0.1715102040816326 0.2970643874858947  59.85560050219348 0.4284897959183673 0.2970643874858947  60 0.2 0.3464101615137754  41.89189189189189 0.4828394391688996 0.2029280440027299  41.89189189189189 0.3 0  42.07207207207206 0.4499999999999999 0.2598076211353317  41.89189189189189 0.1828394391688997 0.3166871982679333  8.108108108108107 0.3 0.5196152422706631  8.198198198198199 0.45 0.2598076211353315  57.92792792792791 0.3656788783377993 0  57.83783783783782 0 0  10.18018018018018 0.2343211216622027 0  10.18018018018018 0.45 0.2598076211353316  10.18018018018018 0.1171605608311014 0.2029280440027317  10.33601168736304 0.45 0.2598076211353316  37.2072072072072 0.1828394391688997 0.3166871982679333  37.38738738738738 0.45 0.2598076211353316  37.2072072072072 0.4171605608311003 0.3166871982679333  37.29729729729729 0.3 0.5196152422706631  18.82882882882883 0.1828394391688986 0.3166871982679315  18.55772858748657 0.2648836593205971 0.1529306520126799  18.73873873873874 0.3 0.5196152422706631  18.64864864864865 0.45 0.2598076211353316  3.333333333333333 0.1171605608311014 0.2029280440027317  3.333333333333333 0.4828394391688986 0.2029280440027317  3.243243243243243 0.3 0.5196152422706631  3.423423423423423 0.3 0.5196152422706631  10.63063063063063 0.3 0.5196152422706631  26.3063063063063 0 0  47.2072072072072 0.3 0.5196152422706631  47.11711711711711 0.15 0.2598076211353316  47.29729729729729 0.45 0.2598076211353316  47.29729729729729 0.1828394391688997 0.3166871982679333  25.85585585585585 0.1171605608311014 0.2029280440027317  25.67567567567567 0.3 0  25.85585585585585 0.45 0.2598076211353316  25.85585585585585 0.3656788783377972 0  56.12612612612611 0.3 0  56.2162162162162 0 0  56.3063063063063 0.1171605608310529 0.2029280440027321  56.12612612612612 0.15 0.2598076211353316  10.9009009009009 0.482839439168898 0.2029280440027326  10.9009009009009 0.3656788783377973 0  10.9009009009009 0.1171605608311014 0.2029280440027317  50.27027027027026 0.6 0  50.36036036036035 0.3656788783377993 0  50.45045045045044 0.6 0  13.6036036036036 0.3 0  13.51351351351351 0.6 0  13.42342342342342 0.3656788783377972 0  13.51387569592304 0.45 0.2598076211353316  56.2162162162162 0.6 0  56.30630630630629 0.3656788783377993 0  56.3063063063063 0.4828394391688997 0.2029280440027298  56.12612612612612 0.45 0.2598076211353316  9.279279279279278 0.15 0.2598076211353316  9.279279279279278 0.4828394391688986 0.2029280440027317  9.189189189189188 0.3 0.5196152422706631  9.369369369369368 0.3 0.5196152422706631  55.04504504504503 0.3 0  54.86486486486485 0.4828394391688997 0.2029280440027298  55.04504504504503 0.45 0.2598076211353316  54.86486486486485 0.3656788783377994 0  24.59459459459459 0.15 0.2598076211353316  24.41441441441441 0.1171605608311014 0.2029280440027316  24.5045045045045 0.3 0.5196152422706631  24.41441441441441 0.4171605608311014 0.3166871982679315  5.855855855855856 0.1171605608311013 0.2029280440027316  5.855855855855855 0.2343211216622027 0  5.675675675675675 0.45 0.2598076211353316  5.855855855855855 0.4171605608311014 
[...]
<PointData  Vectors="f_14"> 
<DataArray  type="Float64"  Name="f_14"  NumberOfComponents="3" format="ascii">-1.0094210078173583e-02 2.7407509412305159e-01 -2.7339429385664393e-01  2.0907189347006645e-02 2.9226085376487759e-01 -2.6113247238799220e-01  2.6096401910896096e-02 2.7593531423685802e-01 -2.7435167085280993e-01  -5.9124261386449229e-03 2.8253895549244595e-01 -2.6592008252265542e-01  1.0843784627502428e-03 3.0027272521816629e-03 -1.5393274771100767e-02  -5.2206451208291441e-04 6.0771970010789055e-03 -1.6750738853865049e-02  1.4803773034240814e-03 5.1463269106126787e-03 -1.4188483772081139e-02  1.7914373544767556e-03 5.9505302200141197e-03 -1.3529317861741308e-02  -9.2162081780932046e-05 1.2225000728148252e-03 -2.9265399219942042e-03  -4.7911947718298905e-04 1.3696752714112039e-03 -3.1212988741297497e-03  5.6052890094606821e-04 1.2000485732535661e-03 -3.2266583974994724e-03  -6.6140977012140543e-05 1.5404549799965177e-03 -3.7150983719518309e-03  4.3905693733012504e-04 3.1538930733319450e-04 -9.2451687530406893e-04  1.8804596950984013e-04 2.3942590157508968e-04 -6.1535599796908079e-04  1.2121696464523343e-03 -1.2476664656644831e-04 -4.6356321839704996e-04  1.3557889465780938e-03 1.4387116416355399e-04 -1.1554784390546786e-03  -4.8835333115368570e-02 7.4633936981125748e-01 -1.5979135957171303e-01  -1.4093225077673001e-02 7.6733571113194887e-01 -2.8840686707733670e-01  -4.5139178064173044e-02 8.6017614691214561e-01 -2.2636930405970429e-01  -1.1792447488911631e-03 7.2098515220387960e-01 -2.9364272412562281e-01  -4.1547943493903547e-02 -1.5187229184722624e-02 4.0089452823343968e-01  -9.4271389673394618e-03 5.6431224652107703e-02 4.9592344416283252e-01  -5.1642226023053808e-02 -1.2238143631313718e-02 5.1288181726194282e-01  4.6486795109528150e-03 6.1323534235146727e-02 4.4627214679194921e-01  3.9940432160702642e-03 -3.5404513165460676e-03 -6.4220842061631324e-03  3.4369767602302989e-03 4.1378358834240616e-03 -8.8475313740363857e-03  2.1538054553175332e-03 4.5444079143645150e-03 1.8477142323563265e-04  3.7775412593131523e-03 3.9847192810117706e-03 -9.6549217229084487e-03  1.4273396311733383e-03 1.7335367270629519e-03 -1.5750581205623032e-02  7.4604059298814937e-04 7.1199801403838659e-04 -1.6999374862709707e-02  1.5087736119384848e-03 2.5573603608844246e-03 -1.6269483442613406e-02  6.0738482071339003e-04 1.8183906305451805e-03 -1.7007146430848784e-02  1.0158843056878319e-01 1.0119119343544127e-01 1.5429370121231306e-01  9.0670799412447767e-02 9.4279049556237407e-02 1.4835171802923150e-01  8.2690906820722845e-02 1.0021908729142567e-01 1.5897993426365906e-01  8.9934847524940478e-02 1.0484291260800366e-01 1.6402305966247546e-01  -4.7857768432522596e-02 6.7102690677926158e-01 -6.4325774393887680e-01  -1.7799779248345068e-02 6.8680404413114471e-01 -5.5276449902048341e-01  -5.1114779393148818e-02 7.0788349885015645e-01 -6.1137673822024918e-01  -6.7263530784341566e-02 7.6899823025807823e-01 -5.8099406442986290e-01  7.5855481966115412e-02 5.5967661790844003e-02 1.0291711347797075e-01  7.6184851001725132e-02 6.8694259822621798e-02 1.1865007922306137e-01  6.1624721581509334e-02 6.7181450931225697e-02 1.1568749844522810e-01  9.7453210730058887e-02 5.4981283670946936e-02 9.8694846297405353e-02  9.4291693953451772e-02 1.1687244198606506e-01 1.7407824555526766e-01  8.5286633966956640e-02 1.1085914011895304e-01 1.6343345541429385e-01  9.2019396802361139e-02 1.0829115629586165e-01 1.7383646855681625e-01  -2.7912801276523725e-02 2.6874582946781911e-01 -4.4316668792087247e-02  -2.1038226618975087e-02 2.7075515326133021e-01 -4.2113672800271541e-02  4.5566362300698523e-03 2.7332449368910605e-01 -2.9492906321878756e-02  -2.5275425715744582e-02 2.5221557893359725e-01 -3.0309897599535462e-02  -1.3005023874200411e-02 1.2103884911342042e-01 -3.2271932653356811e-01  1.4894827856424080e-02 1.2012813863015623e-01 -3.1773238043227725e-01  2.5075729414755646e-03 1.0340175479009786e-01 -2.8625126230684755e-01  -4.5609337297026029e-02 1.0291823849921811e-01 -2.8624759438927111e-01  -4.6187337851413017e-03 9.7289617976828349e-02 5.7378714554164634e-01  -7.2938149308699319e-04 1.1987994510772772e-01 4.5945110155482194e-01  -1.5124070715459306e-02 -2.2286914229222052e-03 5.0516128668105942e-01  -1.2780043135435407e-02 9.5750619119892341e-02 4.4897023713239576e-01  -6.7982927741923761e-04 1.6891612207373414e-03 -3.7992556891102655e-03  5.1843471346445908e-04 1.0965625865386641e-03 -2.9690634643103225e-03  -1.0825474422545009e-03 1.5250796592546764e-03 -3.2015641912048936e-03  9.8835102361602700e-03 2.0627689014620529e-01 -3.0277689887316223e-01  -7.5950420202826130e-03 1.8989387466429244e-01 -3.0303274788447321e-01  -6.3185310784709325e-03 2.0623909542638458e-01 -3.0288815484345977e-01  -1.7368864116780708e-02 1.9803954549551234e-01 -3.0219735682939841e-01  1.4094763560399404e-03 1.1558988345786176e-03 -3.6227270883751870e-04  1.5767665845349999e-03 1.5552744185698189e-03 -1.2936979422915251e-03  5.2161665773550314e-04 1.4952101237049509e-03 -1.2687052504117371e-03  2.0372644402308470e-03 1.3405062373771876e-03 -7.9017342649270099e-04  0.0000000000000000e+00 0.0000000000000000e+00 1.4999999999999999e-01  0.0000000000000000e+00 0.0000000000000000e+00 1.4999999999999999e-01  0.0000000000000000e+00 0.0000000000000000e+00 1.4999999999999999e-01  0.0000000000000000e+00 0.0000000000000000e+00 1.4999999999999999e-01  3.5669904173152526e-03 -4.2419202435561775e-03 -4.2940568849177990e-02  -1.8541446319604454e-02 -6.0474325338568582e-03 -3.4054976295496732e-02  -1.3978174622165548e-02 -4.1554514410501271e-03 -4.3414243808346888e-02  -1.1611842657529453e-02 -8.4594937070164161e-03 -2.4957043123372977e-02  5.9839202459336174e-04 -1.8252432541414748e-03 -3.0513412008843764e-03  4.9807339644930158e-04 -1.8668557734934446e-03 -2.0686368239966960e-03  1.4430161468468520e-03 -2.4826245451688446e-03 -2.3995164196922705e-03  1.3840964286196090e-03 -2.2067481666842958e-03 -3.1736499935323447e-03  6.9703775966378041e-04 2.9543369367027493e-03 -7.1941289319327776e-03  -1.0554889116613958e-04 3.2076017207647326e-03 -7.1696891392407265e-03  3.7691678684857339e-05 3.0427162755496144e-03 -7.0198788480230470e-03  2.1490359318716295e-04 3.2414927060926183e-03 -7.4256074352185607e-03  1.0118659107112023e-02 7.3673790751254589e-02 -2.2169198098983645e-01  -8.7353133370081087e-03 6.7653676790554326e-02 -2.1318620187768883e-01  2.3531831584127083e-02 6.6926969136182637e-02 -2.1356538691216906e-01  -3.8621235520789094e-03 7.8952495111175400e-02 -2.2919137510492912e-01  9.2793098780468014e-03 1.3164144373817921e-01 3.0377959411345180e-02  -1.3539292575524652e-02 1.3552422684619592e-01 1.3061641273264124e-02  -1.5878019161845825e-02 1.5227816559212376e-01 1.1361590744779909e-02  1.6234001350666955e-02 1.4520042675718606e-01 3.9731537040672789e-02  -5.2910842480426629e-02 1.8205510571507540e-02 1.5688657338430771e-02  -6.6292130001654404e-02 -5.0971338022514474e-02 -8.9520200668556288e-02  2.1698832002020607e-02 -3.7776966459720826e-02 -8.1759052845895519e-02  -9.4557485217507911e-02 -1.9838323567838691e-02 -3.3640171996349007e-02  -4.5064108396171941e-04 -9.1689405968387578e-05 1.4991022375446475e-01  0.0000000000000000e+00 0.0000000000000000e+00 1.4999999999999999e-01  7.6319627265844320e-02 3.1419911649556646e-02 2.7345783554715643e-02  5.6800670528686044e-02 6.7375806374650599e-02 1.1214720575120590e-01  2.1489975517142740e-01 7.4060631748329012e-02 5.1313492858632098e-02  1.6774452636357795e-01 8.8394596552430912e-02 9.6743186288068439e-02  6.8171294308257114e-04 -9.3126323809227733e-04 -1.8616476464145678e-03  9.1122133506927716e-04 -7.0688292607733313e-04 -6.7635854083891364e-04  1.0253535089918559e-03 -1.8000649440886099e-03 -1.2699626052878395e-03  9.1766372025153429e-04 -1.0633407814844278e-03 -5.1187979534535091e-04  6.2652692069073738e-04 3.6047071974916966e-03 -7.5111406476974099e-03  2.0172260120416736e-04 3.4987512096892417e-03 -7.6787719497109063e-03  4.2603978608726645e-05 3.3723482004835255e-03 -7.2218935380688482e-03  7.9499062707066295e-04 3.5455313938365040e-03 -7.1215992316807043e-03  1.7988415065563446e-03 2.8602481189326118e-04 -1.4391907725261782e-02  1.2673572004864896e-03 4.4865012255346591e-05 -1.5157235219242468e-02  2.9167307555746170e-03 8.4779275846790913e-04 -1.4069185418966734e-02  2.4821138185107008e-03 1.1672891262282474e-03 -1.5149712959439178e-02  7.0182831362083865e-04 -1.7971643405874694e-03 -1.5180140264078868e-03  8.1835559460083915e-04 -1.5536205091655803e-03 -3.1389688681425374e-04  1.2983429830853734e-03 -2.3543747449501070e-03 -8.4139687688388203e-04  5.1107698462835222e-04 -1.7812744057741344e-03 -9.7289737645536137e-04  -3.4240617272125511e-02 7.9890140732659254e-01 -3.1480731096896103e-01  -4.2646750091431068e-02 7.9285800544681440e-01 -4.4509281114233412e-01  -4.2314299138704402e-02 8.1077931819693205e-01 -3.5645105186577097e-01  -7.7833927586789600e-02 8.8320069008128321e-01 -3.8087101587662420e-01  -2.0536196671102340e-02 2.5732913444425382e-01 -3.1395507581805288e-02  -9.0460528515555829e-04 2.5382880601312507e-01 -1.8101783811696658e-02  -2.3093393634249729e-02 2.3463703545472880e-01 -1.8058781645303300e-02  -2.4699684209404472e-02 2.2932987399987040e-01 -1.7105087512281656e-02  -2.1389103952053633e-02 2.4630504792255001e-01 -2.5241442232913122e-02  -2.1435700631454384e-02 2.2249221081031692e-01 -1.1269099264965221e-02  -8.4976780605016604e-04 2.3856989040605608e-01 -7.0326959893244551e-03  7.6075244047215079e-04 9.3644987437637361e-04 3.9474062000365198e-05  6.1796793017520712e-05 7.6182945731050544e-04 4.5666130074277592e-04  1.4629687363457069e-03 7.2825240894907662e-04 4.1057224116303469e-04  1.1120530203530762e-03 -1.9629050054536241e-03 -1.0880936743139368e-03  1.3883100698248384e-03 -2.1408272957373280e-03 5.1697691231590321e-04  1.5356190503593779e-03 -3.5578356118406828e-03 -2.5561803661129575e-04  1.4693191115474014e-02 -1.5154131037606338e-02 -3.0858261796991417e-03  1.2457996441308494e-02 -6.5958984886756167e-03 -1.4620497382603450e-02  1.6976722324089099e-02 2.3218204786690558e-03 -9.2787222438088096e-03  1.6570821182173734e-02 -2.3577697318143179e-03 -7.7603717395199447e-03  1.1656466397100295e-03 -2.2411695704440153e-03 -1.1561255643510345e-03  1.4220600548085923e-03 -2.5298494317345854e-03 4.5020387242847854e-05  2.8441284360480878e-02 2.3425351626126609e-02 -1.2744949774628976e-02  2.5926411848946798e-02 6.2369373384344121e-03 -9.7679872742175416e-03  3.0010244862728509e-02 1.2293036139272583e-02 -1.6164183468348824e-02  3.1740576994669763e-02 7.2147098853750646e-03 -1.5875350419267159e-02  7.4565200479478483e-02 4.4862158185578586e-02 -5.9089010735349529e-04  7.2016862445152582e-02 4.2064050936401053e-02 4.8789089134749511e-02  8.8172067184994707e-02 2.6797023894496517e-03 2.1135753498442669e-02  7.5427671642065042e-02 4.9442202200260646e-02 4.4980932119456390e-02  8.8303657558288237e-04 -7.7272850163270736e-04 2.2499327073206175e-03  1.0093094131335785e-03 -1.5651855882194842e-03 2.6646261740124783e-03  6.1738118850523059e-04 -1.1839684183342473e-03 1.9349111742165820e-03  7.9692817212765926e-04 -1.6744921307222502e-03 1.8384169483584144e-03  -1.8905475365932081e-02 5.6920930015510615e-02 5.0711023529165344e-01  -3.6769494012485089e-02 5.4299341785696877e-02 3.5360165949623223e-01  -6.6007778245944837e-02 1.8969362623419966e-01 4.4195628108137719e-01  -3.8147453461913040e-03 4.1170131111623716e-02 5.4990329501184076e-01  -8.9589804262832939e-05 -4.5602012768961259e-04 -1.2463820151610789e-02  -3.6185632614562843e-04 -4.7464964827167110e-04 -1.2165829016990481e-02  1.5468520672003864e-03 1.3458628751262757e-04 -1.2644352278499870e-02  -2.4565081636138136e-04 -4.8485096496004448e-04 -1.3679741780705820e-02  0.0000000000000000e+00 0.0000000000000000e+00 0.0000000000000000e+00  9.3714106630010379e-03 4.0113103673121786e-03 1.5291845672667063e-02  6.6871948204732150e-03 5.5557686456648185e-03 4.1933085344541812e-03  0.0000000000000000e+00 0.0000000000000000e+00 0.0000000000000000e+00  1.2461268487776398e-02 2.0828792968822615e-01 1.8006133077811730e-02  3.3981768827589052e-03 2.2101032415280106e-01 6.1213717829829576e-03  8.0360333914099042e-03 1.8638800331587368e-01 2.2814141787801653e-02  -2.0445597605686965e-02 2.0120499023214655e-01 -1.4438035596049462e-03  8.7741257926363927e-04 -2.2833694460839076e-03 2.2672609738469637e-03  1.0921261060449280e-03 -1.6636633771798229e-03 2.8757668928154996e-03  -3.3046684982222609e-02 -8.0968503232919011e-03 4.1415129124603239e-01  -4.2083740609875180e-02 -7.7651931628943266e-03 5.4799677537930802e-01  9.5309761659017949e-04 -4.9350447777990522e-05 -4.3825767165302123e-04  1.3748958580951940e-03 -1.7989511400127317e-03 1.0029723140567845e-03  1.0317300184820698e-03 -1.4187688454010358e-03 -1.2118471366913395e-03  1.3822505157996795e-03 -1.9835606206234867e-03 8.6924313003530643e-04  2.1947484924456393e-02 1.5806902299841782e-01 -2.9666684525526521e-01  -3.2169972312189993e-03 1.7407347604623255e-01 -3.0013807488957966e-01  1.8243112881197140e-03 1.5851168480735947e-01 -2.9563378646624094e-01  1.5512157439443813e-02 1.6522384587832684e-01 -2.9782060250704934e-01  1.0036068036419965e-02 2.4452702875781421e-03 -6.9277898292540363e-03  7.6160644155200781e-03 8.9911742656499281e-04 -3.9119684800144883e-03  1.1612187119637457e-02 7.7809490146304805e-03 -8.3854440131607491e-03  9.5449388523898369e-03 2.7922634560128760e-03 -9.1500356256112199e-03  5.7882498082545821e-04 1.8479361368822678e-03 -4.7768544595329157e-03  -4.0225066643953209e-05 1.8446108191292119e-03 -4.4807506353228589e-03  1.5365906499429178e-03 1.4234092260536537e-03 -4.2415211528981029e-03  1.5005393441990412e-03 1.7523041975543070e-03 -4.9850907416529866e-03  1.5972033129276258e-03 -3.5211235591575598e-03 -3.6199389824154632e-04  -6.4939780091628471e-02 2.8725333818063841e-02 6.4634103427582981e-02  7.7540073392499756e-03 4.5788624123158961e-01 -6.3195353742185123e-01  9.9640039807058645e-03 4.0461843836000672e-01 -6.0411824275686454e-01  -3.7855802498543055e-02 4.3463174949680411e-01 -6.6422007430230900e-01  7.1086648603212116e-03 4.4240574697033019e-01 -6.2107893142604198e-01  7.9759689086908420e-02 1.0750229468385256e-01 1.8108303439599333e-01  8.9868572456094004e-02 1.0892820764894873e-01 1.7057064748963371e-01  1.0891010584093402e-01 1.1554244234596377e-01 1.7136409410049994e-01  7.1702051954587551e-02 1.1204818323989377e-01 1.6505720289353684e-01  2.3668456858978996e-02 -1.1051868328343055e-01 3.5388434323114210e-01  3.8476000554524284e-02 -1.0250708630473428e-01 5.3558609854453831e-01  -9.0983683476782169e-03 1.4431550817491517e-02 4.9114922252546261e-01  -2.6346576993492674e-02 3.2843281835872373e-02 4.3515287687763832e-01  1.2905682566693080e-03 -2.0897819063522500e-03 8.5442060467744635e-05  8.8631847887886460e-04 -1.2053348767421615e-03 -4.8072267992971414e-04  1.0456619241139356e-03 -2.0581127337247831e-03 -1.4755657117738281e-03  -8.8444860660838870e-03 7.0241214521031570e-01 -5.0816814564064172e-01  1.7987078170376544e-03 7.0729966075578754e-01 -4.1688783104240540e-01  -4.2163107196381147e-03 7.0841500217232689e-01 -4.8077157640186885e-01  3.0808481845296038e-04 -7.3817693937028588e-04 -1.5653424825052897e-02  -2.1812309502410780e-04 -7.7243341240994007e-04 -1.6213109669497558e-02  -2.5843333973126497e-05 -7.2377666621925780e-04 -1.4964907002344187e-02  1.1282215496104472e-03 1.1275600283662480e-05 -1.5675605749290580e-02  5.8233859837564985e-03 -1.0123996162961908e-01 2.1011619210468552e-01  1.7570424102516653e-02 -9.4977202433345384e-02 3.5847576397618452e-01  -3.0354949146087579e-02 1.2616911285146857e-02 2.9643502935039046e-01  -4.1453914200901984e-02 3.3174042321774684e-02 2.7138782708431697e-01  1.4854625500377409e-03 -2.7521317005416461e-03 -4.1477447331006922e-04  9.3562359275723144e-04 -1.9026679662159025e-03 2.7405557902812090e-03  1.6546633060232100e-03 -4.8589037343427545e-03 1.0257035636182276e-03  1.6250070980749092e-03 -4.6409482187153728e-03 7.9841883896720860e-04  2.0345862949216757e-02 -1.2685929785303779e-01 7.6774572517192441e-02  -6.2282184552134804e-03 6.7214454885224900e-02 -9.8054440707096124e-02  -2.4944404992874009e-02 5.6845637837265504e-02 -2.6908737304638504e-02  2.9146669493360904e-02 -7.6272033734222783e-02 -1.7070475856759873e-02  9.9016772682916060e-02 7.3860112952613133e-03 -5.2798076187810378e-03  1.0859652828148320e-01 1.9311534360979606e-02 -3.0341574707936629e-02  7.5932969347446949e-02 -1.4144693371068252e-02 1.9680465286995921e-03  9.7104600920397188e-02 6.6750807270862089e-03 -1.1896065332580009e-04  1.0352101515958882e-04 3.0671114005110032e-03 -6.0042394229571370e-03  1.0255269168790797e-03 3.1638354508398059e-03 -5.8993042828733040e-03  2.5561014905496799e-04 3.2288959703326947e-03 -6.4941980331564798e-03  1.7174885417709696e-05 3.0081078946749551e-03 -5.8338446199684068e-03  1.4461499397216062e-03 4.7581664646561590e-04 -1.5348276998179942e-02  1.8809800312106627e-03 2.2005501040874452e-03 -1.6619813973928737e-02  -8.0406730036923779e-03 -1.8280537322415490e-02 8.1796631817968798e-02  -7.5593049779807305e-03 -1.8408393386600792e-02 7.6112610567056663e-02  8.2782972370722425e-03 -1.8363491939677814e-02 7.6330510533896473e-02  -8.2742856203339571e-03 -1.8824764828209811e-02 7.0703298246229507e-02  -1.6802652476612322e-03 1.2147102490940148e-02 -5.8972408066679848e-03  -8.6166581921754771e-04 1.2326768436840980e-02 -1.0971448121465091e-02  -3.0554278360701397e-03 1.5832364106883875e-02 -9.0849903195401489e-03  -2.4574134424445973e-03 1.4562516792054178e-02 -7.1781353425487597e-03  1.2056544883899587e-03 -2.1993953187409900e-03 -1.4998858766402667e-03  7.7085554360696747e-04 -1.3846465210638230e-03 -9.4281301874911720e-04  1.4394922519696848e-03 -2.2745989781851410e-03 -4.7517111830061565e-04  1.0414369017511490e-03 -2.4335405144029526e-03 -1.9531271494366309e-03  4.4584174190168739e-02 2.9903146806934222e-01 -2.5740963455681104e-01  6.7493029133261729e-03 2.8915539141764918e-01 -2.6124948560544264e-01  1.1058972356196626e-02 3.0419606134932997e-01 -2.4860189353869017e-01  3.7671556109779183e-03 -4.1320933287825545e-02 4.5210224686839851e-01  1.0546723369021019e-03 -2.5224696491112527e-02 5.0165287938921899e-01  -1.3828840304087178e-02 -3.2365053180280927e-02 3.5907954554738530e-01  -2.7054257273260069e-02 7.6764419351138979e-02 4.1586153769544587e-01  4.7105341540057535e-02 1.6046584733930375e-01 -3.6901503580706208e-01  1.6869068432262883e-02 1.6149790661717423e-01 -3.8041869999254735e-01  -1.7187273617850322e-03 1.4174060025780280e-01 -3.5698146486410259e-01  -3.1982863523672612e-02 1.5963678305139425e-01 -3.9547360901418854e-01  1.6913987008202111e-03 7.6542425593031250e-03 -1.3164848237834105e-02  8.5472207611824564e-04 6.6422479845083850e-03 -1.5219358889834042e-02  -3.3493089065216454e-04 9.9746481313218380e-03 -1.6188634529794223e-02  -2.1584483918958390e-04 7.0910314068149335e-03 -1.7654272713122882e-02  1.7468974023993417e-02 -1.4854633503070026e-02 9.5825868664253661e-03  1.5416487872753053e-02 -1.5383804259786896e-02 -4.4015065132692504e-03  1.4716519768812289e-02 -3.0527813859417751e-03 4.4057690717732977e-03  1.4751804621325141e-02 -1.5124935234507964e-02 -4.6814994310602374e-03  2.2921885953097222e-02 1.2930188545823915e-01 -2.8182492480383381e-01  5.6599864036586227e-03 1.2903694531986945e-01 -2.7999927995957513e-01  2.6605358114772888e-02 1.2139043238634134e-01 -2.7487505459362666e-01  2.3766962464696648e-02 1.3529692604568067e-01 -2.8428819961206142e-01  4.2374128133288044e-02 3.9423083062378426e-02 -1.4118171060793380e-01  1.5134491612318179e-02 5.5300869835732139e-02 -1.6054213401812170e-01  8.0261153163919737e-03 5.4117915554726531e-02 -1.4957448778071938e-01  4.6185037683262764e-02 5.1339891321541951e-02 -1.7161126709485863e-01  -2.3875158743666237e-02 -1.2208131689199987e-01 -2.6223757607837517e-01  1.2468380008118113e-01 -1.2683406878870915e-01 -2.5142437915593602e-01  9.3555864007274295e-02 -1.6044183513212168e-01 -3.1573132086204142e-01  